20
11_1.log	Energy: -705509.6630392
F          0.70000        2.15647       -0.08245
C          0.00670        1.00787       -0.05424
C          0.68345       -0.20776       -0.04038
S          2.47172       -0.28805       -0.12746
C          3.01156        0.47251        1.37771
O          2.83012       -1.68843       -0.09073
O          2.90015        0.51537       -1.24971
C         -0.04470       -1.39087        0.00066
C         -1.43073       -1.35988        0.02107
C         -2.06266       -0.12688        0.00536
N         -3.53630       -0.07778        0.02912
O         -4.14090       -1.13757        0.06879
O         -4.07074        1.01999        0.00774
C         -1.36973        1.07354       -0.02980
H          2.68928        1.51116        1.39540
H          4.10088        0.41314        1.37019
H          2.60560       -0.08619        2.21921
H          0.48230       -2.33376        0.01246
H         -2.00666       -2.27136        0.04877
H         -1.87716        2.02591       -0.03949
