20
11_3.log	Energy: -705507.4196614
F          0.63786       -2.21070        0.00031
C         -0.02634       -1.04619        0.00009
C          0.68811        0.15008       -0.00009
S          2.47854        0.06405        0.00004
C          3.02606        1.74825       -0.00052
O          2.88242       -0.54981        1.24553
O          2.88256       -0.55071       -1.24496
C         -0.01069        1.35221       -0.00028
C         -1.39778        1.35713       -0.00022
C         -2.06548        0.14413       -0.00005
N         -3.53820        0.13803        0.00000
O         -4.11275        1.21577        0.00095
O         -4.10463       -0.94400       -0.00091
C         -1.40331       -1.07417        0.00008
H          2.68843        2.25357        0.90166
H          2.68829        2.25301       -0.90297
H          4.11444        1.67460       -0.00058
H          0.51585        2.29399       -0.00049
H         -1.94705        2.28527       -0.00033
H         -1.93418       -2.01379        0.00019
