16
12_1.log	Energy: -390009.6056197
N         -2.64617        2.54974       -0.00001
C         -1.88295        1.68833       -0.00000
C         -0.93699        0.62043       -0.00000
C         -1.36943       -0.72149        0.00000
C         -2.76265       -1.02945        0.00000
N         -3.88536       -1.28260        0.00001
C         -0.43641       -1.75655        0.00000
C          0.91853       -1.46930       -0.00000
C          1.32049       -0.14347       -0.00000
N          2.76334        0.16386        0.00000
O          3.09414        1.33831        0.00004
O          3.54239       -0.77507       -0.00004
C          0.42324        0.90971       -0.00000
H         -0.77602       -2.78180        0.00000
H          1.65030       -2.26243        0.00000
H          0.76786        1.93192       -0.00000
