19
13_1.log	Energy: -614168.4031003
O          4.15001       -1.12023        0.02389
N          3.45889       -0.11508        0.03188
C          1.99485       -0.29074        0.01608
C          1.19592        0.83872       -0.00551
C         -0.17298        0.65938        0.00436
N         -0.98203        1.89201        0.04651
O         -0.67645        2.78273       -0.72670
O         -1.87517        1.94962        0.87262
C         -0.75409       -0.61104       -0.00315
C         -2.25185       -0.84096       -0.05684
F         -2.53569       -2.06989       -0.52473
F         -2.86811        0.03518       -0.87236
F         -2.82483       -0.74687        1.15582
C          0.08635       -1.71798       -0.00098
C          1.46529       -1.56825        0.02113
O          3.89393        1.02476        0.05244
H          1.62456        1.82866       -0.01420
H         -0.33659       -2.71080       -0.02458
H          2.11220       -2.43188        0.03293
