14
2_1.log	Energy: -274199.2591355
O          2.28739        1.07893        0.00019
N          1.70907        0.00000       -0.00000
C          0.24191       -0.00000       -0.00000
C         -0.42840       -1.21651        0.00007
C         -1.81524       -1.20778        0.00008
C         -2.50721        0.00000       -0.00000
C         -1.81524        1.20778       -0.00008
C         -0.42840        1.21651       -0.00007
O          2.28739       -1.07893       -0.00019
H          0.12731       -2.14164        0.00013
H         -2.35566       -2.14477        0.00014
H         -3.58953        0.00000        0.00000
H         -2.35566        2.14477       -0.00014
H          0.12731        2.14164       -0.00013
