17
4_1.log	Energy: -361184.1002824
F          2.06463        1.84711        0.00011
C          1.24063        0.77350        0.00005
C          1.81636       -0.49578       -0.00000
C          3.30323       -0.66173       -0.00006
C          0.93918       -1.58110       -0.00006
C         -0.43676       -1.40836       -0.00005
C         -0.94407       -0.11746       -0.00000
N         -2.39306        0.08569       -0.00001
O         -3.11480       -0.90304        0.00024
O         -2.81521        1.23508       -0.00026
C         -0.11666        0.99891        0.00005
H          3.74806       -0.18709        0.87765
H          3.74785       -0.18807       -0.87840
H          3.57220       -1.71648        0.00048
H          1.34911       -2.58249       -0.00010
H         -1.10443       -2.25596       -0.00009
H         -0.51442        2.00198        0.00009
