14
5_1.log	Energy: -336497.8399808
F         -2.67180       -1.43061       -0.00007
C         -1.71090       -0.48161       -0.00002
C         -2.08917        0.85031        0.00007
C         -1.09720        1.82414        0.00013
C          0.24438        1.46759        0.00010
C          0.56910        0.11874        0.00001
N          1.98458       -0.27407       -0.00003
O          2.25064       -1.46781       -0.00042
O          2.82693        0.61234        0.00032
C         -0.39170       -0.88377       -0.00006
H         -3.13873        1.11116        0.00009
H         -1.37382        2.86935        0.00019
H          1.02321        2.21391        0.00015
H         -0.12422       -1.92900       -0.00013
