17
6_1.log	Energy: -485793.5949172
O          3.81286       -0.07544       -0.00034
N          2.73988       -0.66121       -0.00001
C          1.51290        0.14772        0.00004
C          0.28895       -0.50568        0.00007
C         -0.86057        0.26667        0.00010
C         -2.21747       -0.37926       -0.00002
F         -2.94467       -0.01554        1.08185
F         -2.94375       -0.01699       -1.08301
F         -2.15868       -1.72231        0.00089
C         -0.78413        1.65901        0.00011
C          0.45385        2.28517        0.00009
C          1.61860        1.53008        0.00005
O          2.62607       -1.87854        0.00027
H          0.24719       -1.58310        0.00005
H         -1.69049        2.24989        0.00014
H          0.51378        3.36452        0.00011
H          2.59003        2.00022        0.00003
