14
8_1.log	Energy: -398795.4345606
F         -1.97964        2.34411       -0.00060
C         -1.30292        1.18052       -0.00028
C         -2.02528        0.00000       -0.00004
C         -1.30292       -1.18052        0.00023
F         -1.97964       -2.34411        0.00052
C          0.07747       -1.21973        0.00019
C          0.73726        0.00000        0.00002
N          2.20881        0.00000        0.00004
O          2.78053        1.07968        0.00216
O          2.78053       -1.07968       -0.00205
C          0.07747        1.21973       -0.00019
H         -3.10623        0.00000       -0.00006
H          0.61158       -2.15670        0.00038
H          0.61158        2.15670       -0.00035
