20
9_1.log	Energy: -643214.3414210
C         -2.97700        0.00195        1.56930
S         -2.51636       -0.00019       -0.14378
C         -0.72939       -0.00015       -0.09653
C         -0.05278       -1.21450       -0.07672
C          1.33245       -1.21751       -0.03251
C          1.99744       -0.00001       -0.00959
N          3.46999        0.00006        0.03848
O          4.04238        1.07942        0.05763
O          4.04248       -1.07923        0.05790
C          1.33234        1.21743       -0.03285
C         -0.05288        1.21429       -0.07711
O         -2.94655        1.24783       -0.73826
O         -2.94662       -1.24967       -0.73514
H         -4.06767        0.00256        1.59412
H         -2.58505       -0.89574        2.04411
H         -2.58411        0.90027        2.04212
H         -0.59953       -2.14590       -0.10484
H          1.88678       -2.14307       -0.01961
H          1.88659        2.14304       -0.02020
H         -0.59968        2.14565       -0.10554
