16
16_2.log	Energy: -217715.6290486
C         -0.13825        1.13858       -0.22103
C         -1.50155        1.26920        0.00360
C         -2.29190        0.13609        0.18233
C         -1.71001       -1.12444        0.13634
C         -0.34169       -1.25105       -0.08625
C          0.45706       -0.12421       -0.26821
C          1.94136       -0.25742       -0.48293
O          2.70863        0.27261        0.60454
H          0.47537        2.02093       -0.35874
H         -1.95175        2.25360        0.03500
H         -3.35591        0.23812        0.35511
H         -2.31861       -2.00939        0.27444
H          0.11105       -2.23527       -0.12128
H          2.25481        0.31484       -1.35759
H          2.19807       -1.30724       -0.65868
H          2.42773       -0.17693        1.41230
