16
16_3.log	Energy: -217714.5672542
C         -0.00268        1.05436        0.02911
C         -1.36442        1.34583        0.01209
C         -2.30224        0.32180       -0.01264
C         -1.87076       -1.00217       -0.02239
C         -0.51357       -1.29177       -0.00803
C          0.43425       -0.26697        0.01933
C          1.89607       -0.62594        0.05276
O          2.69879        0.54165       -0.07854
H          0.72426        1.85384        0.04762
H         -1.69007        2.37877        0.01798
H         -3.36054        0.55002       -0.02625
H         -2.59321       -1.80866       -0.04434
H         -0.18353       -2.32472       -0.01999
H          2.11111       -1.33369       -0.75700
H          2.11810       -1.13707        0.99827
H          3.62366        0.27750       -0.00925
