16
21_1.log	Energy: -420384.8008612
C         -0.83335       -1.26529        0.00003
C         -2.18816       -0.97337        0.00003
C         -2.62619        0.34888        0.00001
C         -1.68900        1.37313       -0.00002
C         -0.32595        1.09137       -0.00004
C          0.11289       -0.23306       -0.00001
S          1.81455       -0.71579       -0.00005
C          2.70772        0.85502        0.00008
H         -0.50411       -2.29746        0.00006
H         -2.90616       -1.78404        0.00006
H         -3.68460        0.57450        0.00002
H         -2.01371        2.40632       -0.00003
H          0.38055        1.90833       -0.00007
H          2.49142        1.43783        0.89469
H          2.49146        1.43796       -0.89446
H          3.76467        0.58913        0.00008
