15
28_1.log	Energy: -357407.9234691
C          0.74632        1.20883       -0.01743
C          2.13471        1.20480        0.00180
C          2.82886       -0.00010        0.01086
C          2.13450       -1.20489        0.00181
C          0.74614       -1.20868       -0.01744
C          0.05621        0.00014       -0.03075
C         -1.44339        0.00006       -0.00526
F         -1.97240       -1.08307       -0.61368
F         -1.93136       -0.00247        1.26243
F         -1.97255        1.08543       -0.60948
H          0.20436        2.14448       -0.02653
H          2.67373        2.14307        0.00740
H          3.91131       -0.00018        0.02338
H          2.67337       -2.14325        0.00743
H          0.20400       -2.14424       -0.02658
