21
31_2.log	Energy: -219860.9914388
C         -0.81342       -1.19798        0.20369
C         -2.16182       -1.20135       -0.13510
C         -2.84166       -0.00021       -0.30673
C         -2.16211        1.20112       -0.13536
C         -0.81370        1.19815        0.20344
C         -0.11876        0.00019        0.37775
C          1.35266        0.00039        0.69539
C          2.23152       -0.00026       -0.56290
C          3.72078       -0.00004       -0.23801
H         -0.29124       -2.13831        0.33905
H         -2.68296       -2.14238       -0.26171
H         -3.89247       -0.00036       -0.56760
H         -2.68347        2.14201       -0.26218
H         -0.29174        2.13863        0.33859
H          1.59791       -0.87796        1.29898
H          1.59786        0.87938        1.29804
H          1.98296       -0.87638       -1.16907
H          1.98291        0.87522       -1.16999
H          3.99707        0.88272        0.34483
H          4.32504       -0.00058       -1.14796
H          3.99709       -0.88210        0.34589
