20
39_1.log	Energy: -266328.3607060
C          1.15177        1.21030        0.00008
C          2.52286        1.00941        0.00009
C          3.03720       -0.28479        0.00001
C          2.17376       -1.37425       -0.00007
C          0.79926       -1.17288       -0.00006
C          0.27382        0.12226        0.00001
C         -1.19875        0.38780       -0.00003
O         -1.61882        1.53181       -0.00020
C         -2.14726       -0.79134        0.00006
C         -3.61405       -0.39753        0.00008
H          0.74040        2.21038        0.00014
H          3.19359        1.85923        0.00016
H          4.10839       -0.44261       -0.00000
H          2.57017       -2.38151       -0.00013
H          0.14164       -2.03065       -0.00010
H         -1.91080       -1.41199        0.87037
H         -1.91086       -1.41204       -0.87023
H         -3.86559        0.19553       -0.88016
H         -4.24242       -1.29013        0.00005
H         -3.86559        0.19545        0.88038
