22
41_1.log	Energy: -267080.1424270
C         -1.29814       -1.28764        0.28871
C         -2.64718       -0.97446        0.26393
C         -3.07000        0.31141       -0.06745
C         -2.11859        1.27491       -0.37172
C         -0.75837        0.97568       -0.35009
C         -0.34146       -0.31540       -0.02104
O          0.95066       -0.73367        0.01308
C          2.02961        0.19454       -0.22722
C          2.29719        1.02968        1.01407
C          3.22138       -0.65222       -0.62745
H         -0.96026       -2.28416        0.54289
H         -3.37416       -1.74023        0.50478
H         -4.12406        0.55533       -0.08550
H         -2.42867        2.28042       -0.62863
H         -0.04413        1.75006       -0.58488
H          1.75361        0.83926       -1.06566
H          1.41556        1.59234        1.32096
H          2.59842        0.38451        1.84215
H          3.10282        1.74055        0.81983
H          2.99718       -1.23674       -1.52082
H          4.08033       -0.01306       -0.83864
H          3.49147       -1.33785        0.17846
