22
41_3.log	Energy: -267076.5847903
C          0.88438        1.20524       -0.30486
C          2.18282        1.20169        0.19151
C          2.83472       -0.00028        0.44660
C          2.18236       -1.20206        0.19180
C          0.88392       -1.20524       -0.30458
C          0.22797        0.00010       -0.54604
O         -1.02820        0.00032       -1.10471
C         -2.18476        0.00028       -0.21943
C         -2.25737       -1.26292        0.62153
C         -2.25668        1.26286        0.62253
H          0.37596        2.13569       -0.51840
H          2.68753        2.14221        0.37450
H          3.84686       -0.00043        0.83028
H          2.68672       -2.14273        0.37500
H          0.37518       -2.13555       -0.51794
H         -3.01180        0.00078       -0.93089
H         -2.20431       -2.15367       -0.00585
H         -1.45121       -1.30197        1.35611
H         -3.20526       -1.28360        1.16328
H         -1.45045        1.30093        1.35708
H         -2.20320        2.15408       -0.00415
H         -3.20453        1.28360        1.16435
