19
44_1.log	Energy: -276411.0739678
C          0.75567        1.03993        0.01259
C          2.12316        1.29179        0.01110
C          3.04689        0.25435        0.00087
C          2.58937       -1.05985       -0.00825
C          1.22977       -1.32714       -0.00759
C          0.29976       -0.28110        0.00312
N         -1.05910       -0.63696        0.00282
C         -2.16933        0.15958       -0.01034
C         -3.47925       -0.59256        0.01308
O         -2.13249        1.38160       -0.02604
H          0.04578        1.84950        0.01975
H          2.46463        2.31942        0.01811
H          4.10845        0.46462       -0.00031
H          3.29319       -1.88255       -0.01679
H          0.87864       -2.35285       -0.01711
H         -1.23488       -1.62962        0.01628
H         -3.95102       -0.43999        0.98624
H         -3.36839       -1.66255       -0.16050
H         -4.13903       -0.17004       -0.74452
