18
46_1.log	Energy: -288875.0617257
C          0.88551       -1.19230       -0.28532
C          2.24333       -1.20973        0.01229
C          2.93423       -0.01786        0.20460
C          2.26554        1.19697        0.09849
C          0.90746        1.22513       -0.19812
C          0.23763        0.02769       -0.38592
O         -1.11252        0.05663       -0.74949
C         -2.04524       -0.01800        0.24181
C         -3.42663        0.03589       -0.33103
O         -1.75954       -0.11020        1.40626
H          0.33146       -2.10903       -0.43815
H          2.76026       -2.15715        0.09421
H          3.99147       -0.03594        0.43530
H          2.79935        2.12675        0.24720
H          0.36984        2.16005       -0.28452
H         -4.15947       -0.05386        0.46623
H         -3.56030       -0.76934       -1.05511
H         -3.56719        0.98035       -0.86012
