20
49_3.log	Energy: -549584.4102489
C          1.69121       -1.31961       -0.15386
C          3.01404       -1.03057        0.15147
C          3.43994        0.28987        0.24521
C          2.53207        1.31743        0.01476
C          1.21100        1.04045       -0.31443
C          0.78557       -0.28527       -0.39139
N         -0.54751       -0.62213       -0.74353
S         -1.88868        0.06660       -0.05555
C         -1.72139       -0.18816        1.69246
O         -1.85130        1.48468       -0.29919
O         -2.99546       -0.71834       -0.54087
H          1.35409       -2.34767       -0.21333
H          3.70979       -1.84152        0.32523
H          4.46957        0.51531        0.49006
H          2.85441        2.34915        0.07554
H          0.51651        1.84158       -0.51709
H         -0.70031       -1.61058       -0.90660
H         -2.58887        0.26919        2.16753
H         -0.80856        0.29597        2.03503
H         -1.69571       -1.25779        1.89236
