19
51_2.log	Energy: -219079.2606092
C          0.31857        1.04754       -0.00013
C          1.67669        1.33679       -0.00002
C          2.61603        0.30994        0.00009
C          2.17986       -1.00953        0.00003
C          0.81957       -1.29661       -0.00006
C         -0.13457       -0.27597       -0.00012
C         -1.57761       -0.62388       -0.00005
C         -2.59047        0.21366       -0.74758
C         -2.59029        0.21370        0.74775
H         -0.39365        1.86347       -0.00021
H          2.00358        2.36940        0.00002
H          3.67450        0.53713        0.00021
H          2.89884       -1.81961        0.00007
H          0.48896       -2.32862       -0.00009
H         -1.76605       -1.68993        0.00007
H         -2.22038        1.09386       -1.25666
H         -3.38636       -0.30665       -1.26379
H         -3.38601       -0.30674        1.26410
H         -2.22016        1.09388        1.25682
