24
52_1.log	Energy: -244543.2396131
C          1.20351        1.13990       -0.50368
C          2.36588        0.62333       -1.06248
C          2.89734       -0.57269       -0.58935
C          2.25695       -1.24217        0.44673
C          1.09320       -0.71974        1.00206
C          0.54777        0.47646        0.53619
C         -0.73308        1.02846        1.10764
C         -1.95049        0.82431        0.19230
C         -2.31733       -0.63883       -0.03875
C         -3.54227       -0.80558       -0.93189
H          0.79911        2.07397       -0.87678
H          2.86028        1.15581       -1.86575
H          3.80395       -0.97610       -1.02252
H          2.66296       -2.17248        0.82469
H          0.59944       -1.24801        1.80917
H         -0.93002        0.55875        2.07485
H         -0.61204        2.09905        1.29361
H         -1.75877        1.30590       -0.77216
H         -2.80681        1.34468        0.63344
H         -1.46736       -1.16192       -0.48530
H         -2.49975       -1.11980        0.92838
H         -3.78607       -1.85981       -1.08206
H         -3.37405       -0.36067       -1.91641
H         -4.41965       -0.32013       -0.49574
