22
54_3.log	Energy: -267077.9693309
C          1.59299       -1.27756        0.00004
C          2.93256       -0.92601        0.00025
C          3.31352        0.41505        0.00023
C          2.33209        1.39586       -0.00001
C          0.98001        1.05896       -0.00023
C          0.60766       -0.28569       -0.00020
O         -0.67816       -0.72449       -0.00044
C         -1.73546        0.23788       -0.00014
C         -3.05227       -0.50906       -0.00000
C         -4.24097        0.44645        0.00038
H          1.28619       -2.31561        0.00006
H          3.68582       -1.70415        0.00044
H          4.36087        0.68687        0.00040
H          2.61168        2.44222       -0.00003
H          0.23494        1.84053       -0.00043
H         -1.65263        0.87518       -0.88706
H         -1.65230        0.87497        0.88691
H         -3.09008       -1.15807        0.87886
H         -3.09042       -1.15779       -0.87906
H         -4.23346        1.09089       -0.88236
H         -5.18279       -0.10475        0.00029
H         -4.23331        1.09036        0.88350
