21
55_3.log	Energy: -313567.6026943
C         -0.89376       -0.78632       -0.88735
C         -2.05184       -1.38986       -0.40859
C         -2.92542       -0.67714        0.40409
C         -2.63414        0.64317        0.73256
C         -1.47585        1.24155        0.25296
C         -0.58981        0.53578       -0.56289
C          0.68798        1.17600       -1.04150
C          1.79739        1.16164        0.02788
C          2.17571       -0.22384        0.47537
O          2.59337       -0.99634       -0.54944
O          2.13219       -0.63128        1.61111
H         -0.21701       -1.34672       -1.52099
H         -2.27180       -2.41692       -0.67244
H         -3.82790       -1.14488        0.77681
H         -3.31119        1.20762        1.36172
H         -1.25618        2.27094        0.51220
H          0.50361        2.21815       -1.30854
H          1.04553        0.66950       -1.93811
H          2.69353        1.63822       -0.37856
H          1.48557        1.71437        0.91204
H          2.80970       -1.87523       -0.19256
