21
55_7.log	Energy: -313567.9674474
C         -1.50582        1.24797        0.24111
C         -2.65483        0.70039        0.79824
C         -2.98370       -0.62900        0.55263
C         -2.15621       -1.40125       -0.25434
C         -1.00666       -0.84903       -0.80970
C         -0.66526        0.48198       -0.56941
C          0.59789        1.07855       -1.13779
C          1.74822        1.10789       -0.12522
C          2.28521       -0.25970        0.20447
O          2.76504       -0.32662        1.46221
O          2.32923       -1.19868       -0.55361
H         -1.25916        2.28606        0.43323
H         -3.29606        1.31218        1.42076
H         -3.87964       -1.05745        0.98397
H         -2.40512       -2.43624       -0.45387
H         -0.36315       -1.45624       -1.43340
H          0.40651        2.10532       -1.45497
H          0.91241        0.51854       -2.01859
H          2.59192        1.67144       -0.53776
H          1.45198        1.60986        0.79555
H          3.13309       -1.21780        1.59641
