27
58_18.log	Energy: -269223.1123420
C          1.55630        1.18883       -0.14224
C          2.93020        1.29133       -0.32936
C          3.74985        0.19090       -0.10218
C          3.18379       -1.00954        0.31388
C          1.80916       -1.10619        0.49831
C          0.97470       -0.01003        0.27351
C         -0.51831       -0.13058        0.42745
C         -1.20047       -0.56756       -0.87684
C         -2.70812       -0.81475       -0.78015
C         -3.56224        0.40674       -0.40103
C         -3.82292        0.56632        1.09614
H          0.92424        2.05188       -0.31807
H          3.36150        2.23197       -0.64931
H          4.82035        0.26920       -0.24433
H          3.81382       -1.87105        0.49842
H          1.37570       -2.04458        0.82505
H         -0.74916       -0.85581        1.21252
H         -0.92317        0.83016        0.74934
H         -1.00935        0.19116       -1.64299
H         -0.71639       -1.48396       -1.22801
H         -3.03725       -1.18728       -1.75424
H         -2.89914       -1.62430       -0.06671
H         -3.08937        1.31353       -0.79323
H         -4.52914        0.33103       -0.90626
H         -4.44738        1.44108        1.29431
H         -2.90114        0.68286        1.66712
H         -4.34572       -0.30875        1.49147
