27
58_13.log	Energy: -269224.5379538
C         -1.60615        1.01682        0.08147
C         -2.93366        1.43465        0.02049
C         -3.95981        0.50373       -0.06719
C         -3.64734       -0.85289       -0.09496
C         -2.32318       -1.26373       -0.03478
C         -1.27813       -0.33829        0.05648
C          0.14593       -0.84213        0.13637
C          1.24937        0.20165        0.00120
C          2.64465       -0.41587        0.04094
C          3.76636        0.61177       -0.08665
C          5.15715       -0.01306       -0.04756
H         -0.82471        1.76136        0.14804
H         -3.16198        2.49334        0.04059
H         -4.99151        0.82851       -0.11576
H         -4.43732       -1.59053       -0.16634
H         -2.08983       -2.32243       -0.05993
H          0.27196       -1.36790        1.08990
H          0.28177       -1.60585       -0.63625
H          1.12328        0.75013       -0.93801
H          1.16376        0.93998        0.80441
H          2.76920       -0.97039        0.97811
H          2.73810       -1.15285       -0.76481
H          3.64097        1.16606       -1.02280
H          3.67347        1.34727        0.71943
H          5.28994       -0.73008       -0.86230
H          5.32292       -0.54685        0.89220
H          5.93886        0.74428       -0.14138
