27
58_17.log	Energy: -269223.2474229
C          1.92152       -1.15256        0.36125
C          3.24684       -0.91344        0.01604
C          3.65900        0.37059       -0.32465
C          2.73560        1.41058       -0.31501
C          1.41153        1.16521        0.03112
C          0.98370       -0.11855        0.37405
C         -0.46100       -0.38968        0.69920
C         -1.27296       -0.79451       -0.54207
C         -2.75857       -1.07570       -0.26681
C         -3.70155        0.11554       -0.46353
C         -3.44727        1.31304        0.44811
H          1.60874       -2.15552        0.62875
H          3.95919       -1.72940        0.01654
H          4.69131        0.55973       -0.59087
H          3.04720        2.41508       -0.57410
H          0.69868        1.98182        0.03899
H         -0.52570       -1.19676        1.43397
H         -0.90225        0.49434        1.16049
H         -1.17948       -0.01395       -1.30404
H         -0.80565       -1.68698       -0.96678
H         -3.09386       -1.87559       -0.93274
H         -2.87071       -1.46403        0.75175
H         -3.64092        0.44142       -1.50751
H         -4.72852       -0.23170       -0.31287
H         -2.47875        1.77556        0.25059
H         -3.46979        1.02199        1.50175
H         -4.21046        2.08080        0.29980
