27
58_23.log	Energy: -269223.0231190
C         -1.03605        1.06415        0.48867
C         -2.21859        1.56028       -0.05148
C         -3.19541        0.68602       -0.51259
C         -2.98097       -0.68650       -0.42557
C         -1.79841       -1.17526        0.11506
C         -0.80605       -0.30842        0.57946
C          0.48625       -0.84910        1.13598
C          1.40989       -1.45489        0.06214
C          1.90156       -0.49632       -1.03156
C          3.17476        0.29464       -0.71293
C          3.05988        1.32344        0.40949
H         -0.27970        1.75218        0.84667
H         -2.37576        2.63029       -0.11122
H         -4.11702        1.06872       -0.93269
H         -3.73847       -1.37656       -0.77663
H         -1.64245       -2.24596        0.18116
H          1.00157       -0.05643        1.67695
H          0.26064       -1.63213        1.86568
H          2.27292       -1.90863        0.56038
H          0.86702       -2.27704       -0.41202
H          2.10075       -1.08536       -1.93131
H          1.09874        0.19709       -1.30079
H          3.97835       -0.41059       -0.47394
H          3.48740        0.81113       -1.62593
H          2.23527        2.01707        0.22616
H          3.97675        1.91291        0.48709
H          2.89289        0.85512        1.38039
