19
61_1.log	Energy: -492150.5498264
C          1.57423        1.17155       -0.23800
C          2.96184        1.12124       -0.25800
C          3.62374       -0.07905       -0.02507
C          2.88309       -1.22864        0.23141
C          1.49649       -1.17803        0.25533
C          0.81652        0.02243        0.01605
C         -0.65483        0.07879        0.02611
C         -1.41674        1.25196        0.33680
C         -2.76228        1.05042        0.27802
S         -3.13727       -0.56941       -0.16477
C         -1.47513       -0.98340       -0.26574
H          1.07224        2.10881       -0.43881
H          3.52697        2.02225       -0.46165
H          4.70546       -0.11835       -0.04022
H          3.38796       -2.16731        0.42294
H          0.93359       -2.07493        0.47982
H         -0.97401        2.19766        0.61426
H         -3.55084        1.75746        0.48091
H         -1.18655       -1.97877       -0.56239
