25
85_1.log	Energy: -635201.0695041
C          1.90098       -0.21629        1.22134
C          2.98118       -1.08824        1.21986
C          3.54649       -1.49681        0.01590
C          3.03772       -1.03179       -1.19249
C          1.95708       -0.15993       -1.20374
C          1.39931        0.23881        0.00629
S         -0.00000        1.33451        0.00000
O          0.00627        2.06012       -1.25239
O         -0.00632        2.06012        1.25240
C         -1.39931        0.23881       -0.00629
C         -1.95708       -0.15993        1.20374
C         -3.03770       -1.03181        1.19248
C         -3.54647       -1.49683       -0.01590
C         -2.98116       -1.08825       -1.21986
C         -1.90097       -0.21629       -1.22134
H          1.45999        0.11696        2.15020
H          3.38381       -1.44486        2.15880
H          4.38936       -2.17596        0.01975
H          3.48440       -1.34432       -2.12724
H          1.55854        0.21690       -2.13503
H         -1.55854        0.21689        2.13503
H         -3.48438       -1.34435        2.12723
H         -4.38933       -2.17599       -0.01976
H         -3.38379       -1.44487       -2.15880
H         -1.45999        0.11697       -2.15020
