18
8_2.log	Energy: -195177.4286298
C         -0.57021       -1.29048       -0.00253
C         -1.92141       -0.97567       -0.00927
C         -2.32862        0.35619       -0.00569
C         -1.36929        1.35917        0.00443
C         -0.01351        1.03753        0.01122
C          0.40864       -0.29093        0.00835
C          1.86817       -0.69090        0.01983
C          2.88007        0.44675       -0.02227
H         -0.26304       -2.33050       -0.00603
H         -2.65914       -1.76873       -0.01797
H         -3.38218        0.60566       -0.01130
H         -1.67180        2.39924        0.00671
H          0.71498        1.83686        0.01855
H          2.04863       -1.29820        0.91290
H          2.04484       -1.36057       -0.82781
H          3.89515        0.04544       -0.01805
H          2.76717        1.05361       -0.92335
H          2.78237        1.10725        0.84193
